#(C) 2011 by Fachinformationszentrum Karlsruhe. All rights reserved.
data_41392-ICSD
_database_code_ICSD 41392
_audit_creation_date 1999-11-30
_audit_update_record 2007-04-01
_chemical_name_systematic 'Silicon - HP'
_chemical_formula_structural Si
_chemical_formula_sum Si1
_chemical_name_structure_type GaSb
_exptl_crystal_density_diffrn 3.43
_cell_measurement_pressure 15000000.
_publ_section_title 'New high-pressure phase of Si'
loop_
_citation_id
_citation_journal_full
_citation_year
_citation_journal_volume
_citation_page_first
_citation_page_last
_citation_journal_id_ASTM
primary 'Physical Review, Serie 3. B - Condensed Matter (18,1978-)' 1993 47 8337
8340 PRBMDO
loop_
_publ_author_name
'McMahon, M.I.'
'Nelmes, R.J.'
_cell_length_a 4.737(1)
_cell_length_b 4.502(1)
_cell_length_c 2.550(1)
_cell_angle_alpha 90.
_cell_angle_beta 90.
_cell_angle_gamma 90.
_cell_volume 54.38
_cell_formula_units_Z 4
_symmetry_space_group_name_H-M 'I m m a'
_symmetry_Int_Tables_number 74
loop_
_symmetry_equiv_pos_site_id
_symmetry_equiv_pos_as_xyz
1 '-x, y+1/2, -z'
2 '-x, -y+1/2, z'
3 '-x, y, z'
4 '-x, -y, -z'
5 'x, -y+1/2, z'
6 'x, y+1/2, -z'
7 'x, -y, -z'
8 'x, y, z'
9 '-x+1/2, y, -z+1/2'
10 '-x+1/2, -y, z+1/2'
11 '-x+1/2, y+1/2, z+1/2'
12 '-x+1/2, -y+1/2, -z+1/2'
13 'x+1/2, -y, z+1/2'
14 'x+1/2, y, -z+1/2'
15 'x+1/2, -y+1/2, -z+1/2'
16 'x+1/2, y+1/2, z+1/2'
loop_
_atom_type_symbol
_atom_type_oxidation_number
Si0+ 0
loop_
_atom_site_label
_atom_site_type_symbol
_atom_site_symmetry_multiplicity
_atom_site_Wyckoff_symbol
_atom_site_fract_x
_atom_site_fract_y
_atom_site_fract_z
_atom_site_B_iso_or_equiv
_atom_site_occupancy
_atom_site_attached_hydrogens
Si1 Si0+ 4 e 0 0.25 0.192(2) . 1. 0
#End of data_41392-ICSD
