
#(C) 2016 by FIZ Karlsruhe - Leibniz Institute for Information Infrastructure.  All rights reserved.
data_157059-ICSD
_database_code_ICSD 157059
_audit_creation_date 2008-02-01
_chemical_name_systematic 'Calcium manganate(IV)'
_chemical_formula_structural 'Ca (Mn O3)'
_chemical_formula_sum 'Ca1 Mn1 O3'
_chemical_name_structure_type Perovskite-GdFeO3
_exptl_crystal_density_diffrn 4.58
_cell_measurement_temperature 298.
_publ_section_title 'Thermal expansion and structure of orthorhombic Ca Mn O3'
loop_
_citation_id
_citation_journal_full
_citation_year
_citation_journal_volume
_citation_page_first
_citation_page_last
_citation_journal_id_ASTM
primary 'Journal of Physics and Chemistry of Solids' 2006 67 1595 1598 JPCSAW
loop_
_publ_author_name
'Zhou Qing Di'
'Kennedy, B.J.'
_cell_length_a 5.26746(5)
_cell_length_b 5.28287(5)
_cell_length_c 7.45790(7)
_cell_angle_alpha 90.
_cell_angle_beta 90.
_cell_angle_gamma 90.
_cell_volume 207.53
_cell_formula_units_Z 4
_symmetry_space_group_name_H-M 'P b n m'
_symmetry_Int_Tables_number 62
_refine_ls_R_factor_all 0.0467
loop_
_symmetry_equiv_pos_site_id
_symmetry_equiv_pos_as_xyz
1 '-x+1/2, y+1/2, z'
2 'x, y, -z+1/2'
3 'x+1/2, -y+1/2, z+1/2'
4 '-x, -y, -z'
5 'x+1/2, -y+1/2, -z'
6 '-x, -y, z+1/2'
7 '-x+1/2, y+1/2, -z+1/2'
8 'x, y, z'
loop_
_atom_type_symbol
_atom_type_oxidation_number
Ca2+ 2
Mn4+ 4
O2- -2
loop_
_atom_site_label
_atom_site_type_symbol
_atom_site_symmetry_multiplicity
_atom_site_Wyckoff_symbol
_atom_site_fract_x
_atom_site_fract_y
_atom_site_fract_z
_atom_site_B_iso_or_equiv
_atom_site_occupancy
_atom_site_attached_hydrogens
Ca1 Ca2+ 4 c 0.0056(3) 0.5330(1) 0.25 0.68(1) 1. 0
Mn1 Mn4+ 4 a 0 0 0 0.42(1) 1. 0
O1 O2- 4 c -0.0657(8) -0.0092(5) 0.25 0.79(5) 1. 0
O2 O2- 8 d 0.2116(4) 0.2870(4) 0.0332(4) 0.59(3) 1. 0
#End of TTdata_157059-ICSD