#(C) 2011 by Fachinformationszentrum Karlsruhe. All rights reserved.
data_52456-ICSD
_database_code_ICSD 52456
_audit_creation_date 2003-04-01
_audit_update_record 2007-04-01
_chemical_name_systematic 'Silicon - HP'
_chemical_formula_structural Si
_chemical_formula_sum Si1
_chemical_name_structure_type BiIn(hP1)
_exptl_crystal_density_diffrn 3.55
_cell_measurement_pressure 20000000.
_publ_section_title
'Structural phase transitions in Si and Ge under pressures up to 50 GPa'
loop_
_citation_id
_citation_journal_full
_citation_year
_citation_journal_volume
_citation_page_first
_citation_page_last
_citation_journal_id_ASTM
primary 'Physics Letters A' 1984 103 137 140 PYLAAG
loop_
_publ_author_name
'Olijnyk, H.'
'Sikka, S.K.'
'Holzapfel, W.B.'
_cell_length_a 2.527
_cell_length_b 2.527
_cell_length_c 2.373
_cell_angle_alpha 90.
_cell_angle_beta 90.
_cell_angle_gamma 120.
_cell_volume 13.12
_cell_formula_units_Z 1
_symmetry_space_group_name_H-M 'P 6/m m m'
_symmetry_Int_Tables_number 191
loop_
_symmetry_equiv_pos_site_id
_symmetry_equiv_pos_as_xyz
1 '-x, -x+y, -z'
2 'x-y, -y, -z'
3 'y, x, -z'
4 '-x+y, -x, -z'
5 '-y, x-y, -z'
6 'x, y, -z'
7 'x, x-y, -z'
8 '-x+y, y, -z'
9 '-y, -x, -z'
10 'x-y, x, -z'
11 'y, -x+y, -z'
12 '-x, -y, -z'
13 'x, x-y, z'
14 '-x+y, y, z'
15 '-y, -x, z'
16 'x-y, x, z'
17 'y, -x+y, z'
18 '-x, -y, z'
19 '-x, -x+y, z'
20 'x-y, -y, z'
21 'y, x, z'
22 '-x+y, -x, z'
23 '-y, x-y, z'
24 'x, y, z'
loop_
_atom_type_symbol
_atom_type_oxidation_number
Si0+ 0
loop_
_atom_site_label
_atom_site_type_symbol
_atom_site_symmetry_multiplicity
_atom_site_Wyckoff_symbol
_atom_site_fract_x
_atom_site_fract_y
_atom_site_fract_z
_atom_site_B_iso_or_equiv
_atom_site_occupancy
_atom_site_attached_hydrogens
Si1 Si0+ 1 a 0 0 0 . 1. 0
#End of data_52456-ICSD
